 Gaussian 09, Revision E.01,
 Gaussian 09:  ES64L-G09RevE.01 30-Nov-2015

 ---------------------------------------------------
 # opt freq b3lyp/6-31+g(d,p) scrf=(smd,solvent=THF)
 ---------------------------------------------------

 -------------------
 cl(-)...H3C-cl (ts)
 -------------------
 Symbolic Z-matrix:
 Charge =  0 Multiplicity = 1

 SCF Done:  E(RB3LYP) =  -2650.96682581     A.U. after   11 cycles
 SCF Done:  E(RB3LYP) =  -2650.96683240     A.U. after    8 cycles
 Optimization completed.
    -- Stationary point found.
 Normal termination of Gaussian 09 at Tue Oct 12 11:09:16 2021.

 ----------------------------------------------------------------------
 #N Geom=AllCheck Guess=TCheck SCRF=Check GenChk RB3LYP/6-31+G(d,p) Fre
 q
 ----------------------------------------------------------------------

 Structure from the checkpoint file:  "/scratch/global/Gau-72353.chk"
 -------------------
 cl(-)...H3C-cl (ts)
 -------------------
 Charge =  0 Multiplicity = 1

                         Standard orientation:
 ---------------------------------------------------------------------
 Center     Atomic      Atomic             Coordinates (Angstroms)
 Number     Number       Type             X           Y           Z
 ---------------------------------------------------------------------
      1          6           0       -2.098217   -0.402203   -0.000003
      2          1           0       -3.087760    0.073541   -0.000039
      3          1           0       -2.026409   -1.035444   -0.889135
      4          1           0       -2.026477   -1.035406    0.889169
      5          6           0       -1.046634    0.685613    0.000000
      6          1           0       -1.088105    1.311505   -0.891301
      7          1           0       -1.088107    1.311470    0.891323
      8         35           0        0.805313   -0.066461   -0.000000
 ---------------------------------------------------------------------

 SCF Done:  E(RB3LYP) =  -2650.96683240     A.U. after    1 cycles

 The electronic state is 1-A.
 Alpha  occ. eigenvalues -- -482.90545 -61.86652 -56.38419 -56.38077 -56.38070
 Alpha  occ. eigenvalues --  -10.24076 -10.18653  -8.57414  -6.52611  -6.51459
 Alpha  occ. eigenvalues --   -6.51449  -2.64176  -2.63855  -2.63848  -2.62928
 Alpha  occ. eigenvalues --   -2.62928  -0.80765  -0.72316  -0.61191  -0.46571
 Alpha  occ. eigenvalues --   -0.43393  -0.39917  -0.36697  -0.34575  -0.27584
 Alpha  occ. eigenvalues --   -0.27454
 Alpha virt. eigenvalues --   -0.01604   0.00914   0.03284   0.04558   0.04963
 Alpha virt. eigenvalues --    0.06930   0.07799   0.07864   0.08631   0.09379
 Alpha virt. eigenvalues --    0.11809   0.13520   0.14660   0.19334   0.20391

 Mulliken charges:
               1
     1  C   -0.446421
     2  H    0.171673
     3  H    0.172227
     4  H    0.172228
     5  C   -0.239142
     6  H    0.196374
     7  H    0.196374
     8  Br  -0.223314
 Sum of Mulliken charges =   0.00000

 Dipole moment (field-independent basis, Debye):
    X=             -2.8443    Y=              0.9152    Z=              0.0000  Tot=              2.9880
 Quadrupole moment (field-independent basis, Debye-Ang):
   XX=            -30.0461   YY=            -32.0675   ZZ=            -32.6951
   XY=             -1.4520   XZ=             -0.0000   YZ=             -0.0000

  Exact polarizability:  67.926  -4.157  48.075   0.017  -0.006  45.458
 Approx polarizability:  78.284  -7.732  56.040  -0.000  -0.000  53.311

                      1                      2                      3
                      A                      A                      A
 Frequencies --    266.5359               287.2240               532.8323
 Red. masses --      1.0779                 3.3087                 4.2508
 Frc consts  --      0.0451                 0.1608                 0.7111
 IR Inten    --      0.0137                 4.8907                37.6570

                      4                      5                      6
                      A                      A                      A
 Frequencies --    781.0084               970.7629              1045.4774
 Red. masses --      1.1151                 1.6845                 1.1824
 Frc consts  --      0.4007                 0.9353                 0.7615
 IR Inten    --      6.4867                37.8698                 0.0387

                      7                      8                      9
                      A                      A                      A
 Frequencies --   1084.8131              1268.7179              1290.4018
 Red. masses --      2.1574                 1.2387                 1.2117
 Frc consts  --      1.4959                 1.1748                 1.1888
 IR Inten    --      0.3704                 0.1132                91.4339

                     10                     11                     12
                      A                      A                      A
 Frequencies --   1415.0517              1477.4735              1481.3911
 Red. masses --      1.2315                 1.0365                 1.0952
 Frc consts  --      1.4529                 1.3331                 1.4161
 IR Inten    --     10.9000                19.8519                 1.5156

                     13                     14                     15
                      A                      A                      A
 Frequencies --   1489.2347              3038.8212              3105.6313
 Red. masses --      1.0640                 1.0395                 1.0885
 Frc consts  --      1.3904                 5.6558                 6.1855
 IR Inten    --      5.1980                20.2153                 4.5759

                     16                     17                     18
                      A                      A                      A
 Frequencies --   3118.9918              3131.2296              3185.0990
 Red. masses --      1.0652                 1.1047                 1.1120
 Frc consts  --      6.1056                 6.3817                 6.6469
 IR Inten    --     27.9672                18.0714                 5.9928

 - Thermochemistry -
 -------------------
 Temperature   298.150 Kelvin.  Pressure   1.00000 Atm.
 Atom     1 has atomic number  6 and mass  12.00000

 Molecular mass:   107.95746 amu.
 Principal axes and moments of inertia in atomic units:
                           1         2         3
     Eigenvalues --    59.74043 493.30910 530.23142
           X            0.99993   0.01153  -0.00000
           Y           -0.01153   0.99993  -0.00000
           Z            0.00000   0.00000   1.00000
 This molecule is an asymmetric top.
 Rotational symmetry number  1.
 Rotational temperatures (Kelvin)      1.44984     0.17558     0.16335
 Rotational constants (GHZ):          30.20971     3.65844     3.40369
 Zero-point vibrational energy     173283.3 (Joules/Mol)
                                   41.41569 (Kcal/Mol)
 Warning -- explicit consideration of   3 degrees of freedom as
           vibrations may cause significant error
 Vibrational temperatures:    383.49   413.25   766.63  1123.70  1396.71
          (Kelvin)           1504.21  1560.80  1825.40  1856.60  2035.94
                             2125.75  2131.39  2142.67  4372.18  4468.31
                             4487.53  4505.14  4582.64

 Zero-point correction=                           0.066000 (Hartree/Particle)
 Thermal correction to Energy=                    0.070163
 Thermal correction to Enthalpy=                  0.071108
 Thermal correction to Gibbs Free Energy=         0.038568
 Sum of electronic and zero-point Energies=          -2650.900832
 Sum of electronic and thermal Energies=             -2650.896669
 Sum of electronic and thermal Enthalpies=           -2650.895725
 Sum of electronic and thermal Free Energies=        -2650.928264

                     E (Thermal)             CV                S
                      KCal/Mol        Cal/Mol-Kelvin    Cal/Mol-Kelvin
 Total                   44.028             12.944             68.485
 Electronic               0.000              0.000              0.000
 Translational            0.889              2.981             39.946
 Rotational               0.889              2.981             24.261
 Vibrational             42.251              6.982              4.277
 Vibration     1          0.672              1.735              1.619
 Vibration     2          0.684              1.697              1.490
 Vibration     3          0.888              1.177              0.581

 Optimization completed.
    -- Stationary point found.
 Normal termination of Gaussian 09 at Tue Oct 12 11:09:35 2021.
