 Gaussian 16, Revision C.01,
 Gaussian 16:  ES64L-G16RevC.01  3-Jul-2019

 ----------------------------------------------------------------------
 # opt=(calcfc,ts,noeigentest) freq b3lyp/6-31+g(d,p) scrf=(smd,solvent
 =THF)
 ----------------------------------------------------------------------

 -------------------
 cl(-)...H3C-cl (ts)
 -------------------
 Symbolic Z-matrix:
 Charge = -1 Multiplicity = 1

 SCF Done:  E(RB3LYP) =  -2726.83572560     A.U. after   15 cycles
 SCF Done:  E(RB3LYP) =  -2726.84573158     A.U. after   13 cycles
 SCF Done:  E(RB3LYP) =  -2726.85630239     A.U. after   13 cycles
 SCF Done:  E(RB3LYP) =  -2726.86529875     A.U. after   12 cycles
 SCF Done:  E(RB3LYP) =  -2726.86657522     A.U. after   12 cycles
 SCF Done:  E(RB3LYP) =  -2726.86672729     A.U. after   12 cycles
 SCF Done:  E(RB3LYP) =  -2726.86751063     A.U. after   11 cycles
 SCF Done:  E(RB3LYP) =  -2726.86801253     A.U. after   11 cycles
 SCF Done:  E(RB3LYP) =  -2726.86778887     A.U. after   13 cycles
 SCF Done:  E(RB3LYP) =  -2726.86837060     A.U. after   11 cycles
 SCF Done:  E(RB3LYP) =  -2726.86865545     A.U. after    7 cycles
 SCF Done:  E(RB3LYP) =  -2726.86791105     A.U. after   11 cycles
 SCF Done:  E(RB3LYP) =  -2726.86857210     A.U. after   11 cycles
 SCF Done:  E(RB3LYP) =  -2726.86865218     A.U. after   10 cycles
 SCF Done:  E(RB3LYP) =  -2726.86865519     A.U. after    9 cycles
 SCF Done:  E(RB3LYP) =  -2726.86806735     A.U. after   11 cycles
 SCF Done:  E(RB3LYP) =  -2726.86860505     A.U. after   11 cycles
 SCF Done:  E(RB3LYP) =  -2726.86865336     A.U. after   10 cycles
 SCF Done:  E(RB3LYP) =  -2726.86865543     A.U. after    8 cycles
 Optimization completed.
    -- Stationary point found.
 Normal termination of Gaussian 16 at Thu Sep 16 12:33:43 2021.

 ----------------------------------------------------------------------
 #N Geom=AllCheck Guess=TCheck SCRF=Check GenChk RB3LYP/6-31+G(d,p) Fre
 q
 ----------------------------------------------------------------------

 Structure from the checkpoint file:  "/scratch/global/Gau-44407.chk"
 -------------------
 cl(-)...H3C-cl (ts)
 -------------------
 Charge = -1 Multiplicity = 1

                         Standard orientation:
 ---------------------------------------------------------------------
 Center     Atomic      Atomic             Coordinates (Angstroms)
 Number     Number       Type             X           Y           Z
 ---------------------------------------------------------------------
      1          6           0       -1.274739    1.357365   -0.000034
      2          1           0       -2.365145    1.452772    0.001220
      3          1           0       -0.871883    1.855635    0.886867
      4          1           0       -0.874010    1.854988   -0.888259
      5          6           0       -0.952982   -0.107537    0.000088
      6          1           0       -1.023340   -0.665966    0.916918
      7          1           0       -1.023353   -0.666076   -0.916671
      8         35           0        1.381326   -0.132712   -0.000007
      9          8           0       -3.191450   -0.635696    0.000045
     10          1           0       -3.290751   -1.599845   -0.000522
 ---------------------------------------------------------------------

 SCF Done:  E(RB3LYP) =  -2726.86865543     A.U. after    1 cycles

 The electronic state is 1-A.
 Alpha  occ. eigenvalues -- -482.83049 -61.79133 -56.30815 -56.30621 -56.30616
 Alpha  occ. eigenvalues --  -19.02090 -10.21192 -10.15231  -8.49824  -6.44665
 Alpha  occ. eigenvalues --   -6.44057  -6.44056  -2.56291  -2.56126  -2.56125
 Alpha  occ. eigenvalues --   -2.55642  -2.55641  -0.82234  -0.73803  -0.66266
 Alpha  occ. eigenvalues --   -0.57710  -0.43211  -0.39145  -0.36936  -0.33588
 Alpha  occ. eigenvalues --   -0.30473  -0.26125  -0.21979  -0.21929  -0.17571
 Alpha  occ. eigenvalues --   -0.17206
 Alpha virt. eigenvalues --    0.00139   0.02730   0.04973   0.06139   0.06674
 Alpha virt. eigenvalues --    0.08573   0.09136   0.09794   0.10330   0.11087
 Alpha virt. eigenvalues --    0.13273   0.14977   0.15813   0.20118   0.22446

 Mulliken charges:
               1
     1  C   -0.494645
     2  H    0.199717
     3  H    0.153059
     4  H    0.153039
     5  C   -0.093356
     6  H    0.204804
     7  H    0.204804
     8  Br  -0.554881
     9  O   -1.059658
    10  H    0.287115
 Sum of Mulliken charges =  -1.00000

 Dipole moment (field-independent basis, Debye):
    X=              5.9140    Y=              1.1315    Z=             -0.0007  Tot=              6.0213
 Quadrupole moment (field-independent basis, Debye-Ang):
   XX=            -86.9120   YY=            -41.2807   ZZ=            -43.8337
   XY=             -2.1692   XZ=              0.0033   YZ=              0.0024

  Exact polarizability:     166.350       8.998      71.834      -0.001      -0.002      66.075
 Approx polarizability:     187.143       9.840      78.098      -0.002       0.001      73.362

 ******    1 imaginary frequencies (negative Signs) ******

                      1                      2                      3
                      A                      A                      A
 Frequencies --   -393.6564               163.1072               165.9573
 Red. masses --      6.3896                 3.7928                 1.4231
 Frc consts  --      0.5834                 0.0594                 0.0231
 IR Inten    --   1218.3960                18.6130                59.5788

                      4                      5                      6
                      A                      A                      A
 Frequencies --    185.3263               206.0297               239.8483
 Red. masses --      1.0825                 6.7957                 1.7052
 Frc consts  --      0.0219                 0.1700                 0.0578
 IR Inten    --    119.1072                17.2119                 1.3111

                      7                      8                      9
                      A                      A                      A
 Frequencies --    294.0102               517.0265               808.8220
 Red. masses --      3.0668                 1.2321                 1.0629
 Frc consts  --      0.1562                 0.1941                 0.4097
 IR Inten    --     14.3750               201.6967                 2.6027

                     10                     11                     12
                      A                      A                      A
 Frequencies --    900.4399               949.9926              1027.4870
 Red. masses --      1.0231                 1.2854                 1.3326
 Frc consts  --      0.4887                 0.6835                 0.8289
 IR Inten    --      1.9010                14.2845               182.0607

                     13                     14                     15
                      A                      A                      A
 Frequencies --   1080.8645              1213.3980              1378.0259
 Red. masses --      1.9728                 1.4392                 1.2194
 Frc consts  --      1.3579                 1.2484                 1.3643
 IR Inten    --     56.0404                 0.4245                18.6697

                     16                     17                     18
                      A                      A                      A
 Frequencies --   1458.1680              1481.5795              1484.0883
 Red. masses --      1.1467                 1.0905                 1.0376
 Frc consts  --      1.4366                 1.4103                 1.3465
 IR Inten    --      3.7465                 0.6372                13.7625

                     19                     20                     21
                      A                      A                      A
 Frequencies --   3047.1871              3121.5822              3123.6882
 Red. masses --      1.0343                 1.1035                 1.1018
 Frc consts  --      5.6584                 6.3357                 6.3341
 IR Inten    --     30.3158                32.0518                 7.9282

                     22                     23                     24
                      A                      A                      A
 Frequencies --   3260.6938              3376.2987              3780.2753
 Red. masses --      1.0531                 1.1233                 1.0670
 Frc consts  --      6.5971                 7.5441                 8.9836
 IR Inten    --      3.2029                 1.2167                10.6981

 - Thermochemistry -
 -------------------
 Temperature   298.150 Kelvin.  Pressure   1.00000 Atm.
 Atom     1 has atomic number  6 and mass  12.00000

 Molecular mass:   124.96020 amu.
 Principal axes and moments of inertia in atomic units:
                           1         2         3
     Eigenvalues --   163.652071298.454551438.66583
           X            0.99999   0.00317   0.00001
           Y           -0.00317   0.99999   0.00001
           Z           -0.00001  -0.00001   1.00000
 This molecule is an asymmetric top.
 Rotational symmetry number  1.
 Rotational temperatures (Kelvin)      0.52926     0.06671     0.06020
 Rotational constants (GHZ):          11.02792     1.38991     1.25445
    1 imaginary frequencies ignored.
 Zero-point vibrational energy     198962.3 (Joules/Mol)
                                   47.55313 (Kcal/Mol)
 Warning -- explicit consideration of   7 degrees of freedom as
           vibrations may cause significant error
 Vibrational temperatures:    234.67   238.78   266.64   296.43   345.09
          (Kelvin)            423.02   743.89  1163.71  1295.53  1366.83
                             1478.32  1555.12  1745.81  1982.67  2097.98
                             2131.66  2135.27  4384.22  4491.26  4494.29
                             4691.41  4857.74  5438.97

 Zero-point correction=                           0.075781 (Hartree/Particle)
 Thermal correction to Energy=                    0.082401
 Thermal correction to Enthalpy=                  0.083345
 Thermal correction to Gibbs Free Energy=         0.044612
 Sum of electronic and zero-point Energies=          -2726.792875
 Sum of electronic and thermal Energies=             -2726.786255
 Sum of electronic and thermal Enthalpies=           -2726.785310
 Sum of electronic and thermal Free Energies=        -2726.824043

                     E (Thermal)             CV                S
                      KCal/Mol        Cal/Mol-Kelvin    Cal/Mol-Kelvin
 Total                   51.707             20.874             81.520
 Electronic               0.000              0.000              0.000
 Translational            0.889              2.981             40.382
 Rotational               0.889              2.981             27.216
 Vibrational             49.930             14.912             13.922
 Vibration     1          0.623              1.888              2.513
 Vibration     2          0.624              1.884              2.481
 Vibration     3          0.631              1.860              2.274
 Vibration     4          0.641              1.831              2.079
 Vibration     5          0.657              1.779              1.804
 Vibration     6          0.689              1.685              1.451
 Vibration     7          0.872              1.212              0.617

                           ! Non-Optimized Parameters !
 Normal termination of Gaussian 16 at Thu Sep 16 12:33:59 2021.
