 Gaussian 16, Revision C.01,
 Gaussian 16:  ES64L-G16RevC.01  3-Jul-2019

 ---------------------------------------------------
 # opt freq b3lyp/6-31+g(d,p) scrf=(smd,solvent=THF)
 ---------------------------------------------------

 --------------
 br(-)...H3C-br
 --------------
 Symbolic Z-matrix:
 Charge = -1 Multiplicity = 1

 SCF Done:  E(RB3LYP) =  -2726.92105278     A.U. after   13 cycles
 SCF Done:  E(RB3LYP) =  -2726.93502446     A.U. after   12 cycles
 SCF Done:  E(RB3LYP) =  -2726.93668255     A.U. after   12 cycles
 SCF Done:  E(RB3LYP) =  -2726.94305690     A.U. after   11 cycles
 SCF Done:  E(RB3LYP) =  -2726.94463116     A.U. after   10 cycles
 SCF Done:  E(RB3LYP) =  -2726.94535358     A.U. after   10 cycles
 SCF Done:  E(RB3LYP) =  -2726.94574570     A.U. after    9 cycles
 SCF Done:  E(RB3LYP) =  -2726.94600495     A.U. after   10 cycles
 SCF Done:  E(RB3LYP) =  -2726.94603035     A.U. after    8 cycles
 SCF Done:  E(RB3LYP) =  -2726.94607879     A.U. after   10 cycles
 SCF Done:  E(RB3LYP) =  -2726.94611432     A.U. after    8 cycles
 SCF Done:  E(RB3LYP) =  -2726.94625502     A.U. after    9 cycles
 SCF Done:  E(RB3LYP) =  -2726.94631463     A.U. after    9 cycles
 SCF Done:  E(RB3LYP) =  -2726.94632634     A.U. after    9 cycles
 SCF Done:  E(RB3LYP) =  -2726.94636325     A.U. after    9 cycles
 SCF Done:  E(RB3LYP) =  -2726.94637377     A.U. after    9 cycles
 SCF Done:  E(RB3LYP) =  -2726.94637607     A.U. after    8 cycles
 SCF Done:  E(RB3LYP) =  -2726.94637789     A.U. after    7 cycles
 SCF Done:  E(RB3LYP) =  -2726.94637805     A.U. after    7 cycles
 Optimization completed.
    -- Stationary point found.
 Normal termination of Gaussian 16 at Thu Sep 16 12:29:36 2021.

 ----------------------------------------------------------------------
 #N Geom=AllCheck Guess=TCheck SCRF=Check GenChk RB3LYP/6-31+G(d,p) Fre
 q
 ----------------------------------------------------------------------

 Structure from the checkpoint file:  "/scratch/global/Gau-26031.chk"
 --------------
 br(-)...H3C-br
 --------------
 Charge = -1 Multiplicity = 1

                         Standard orientation:
 ---------------------------------------------------------------------
 Center     Atomic      Atomic             Coordinates (Angstroms)
 Number     Number       Type             X           Y           Z
 ---------------------------------------------------------------------
      1          6           0        2.660644   -0.468771   -0.011752
      2          1           0        2.450407   -1.085557   -0.891164
      3          1           0        2.403710   -1.062239    0.877715
      4          8           0        4.082073   -0.236200   -0.048011
      5          1           0        4.309401    0.325714    0.707038
      6          6           0        1.843013    0.812652   -0.046768
      7          1           0        0.769379    0.581949   -0.036978
      8          1           0        2.060211    1.439285    0.828888
      9          1           0        2.068367    1.394357   -0.948521
     10         35           0       -2.106857   -0.050491    0.005664
 ---------------------------------------------------------------------

 SCF Done:  E(RB3LYP) =  -2726.94637805     A.U. after    1 cycles

 The electronic state is 1-A.
 Alpha  occ. eigenvalues -- -482.77303 -61.73397 -56.25042 -56.25028 -56.25027
 Alpha  occ. eigenvalues --  -19.13982 -10.21206 -10.15096  -8.44151  -6.38623
 Alpha  occ. eigenvalues --   -6.38622  -6.38618  -2.50327  -2.50327  -2.50324
 Alpha  occ. eigenvalues --   -2.50323  -2.50322  -1.00135  -0.72370  -0.60605
 Alpha  occ. eigenvalues --   -0.60154  -0.48079  -0.43029  -0.40866  -0.35810
 Alpha  occ. eigenvalues --   -0.34588  -0.31006  -0.26074  -0.17626  -0.17624
 Alpha  occ. eigenvalues --   -0.17584
 Alpha virt. eigenvalues --    0.02356   0.03966   0.05027   0.06198   0.06856
 Alpha virt. eigenvalues --    0.08467   0.08862   0.10372   0.10778   0.11460
 Alpha virt. eigenvalues --    0.12461   0.16053   0.18348   0.19398   0.20125

 Mulliken charges:
               1
     1  C   -0.041372
     2  H    0.145319
     3  H    0.134783
     4  O   -0.561918
     5  H    0.349479
     6  C   -0.521956
     7  H    0.195227
     8  H    0.141789
     9  H    0.152435
    10  Br  -0.993786
 Sum of Mulliken charges =  -1.00000

 Dipole moment (field-independent basis, Debye):
    X=              8.1276    Y=              0.9814    Z=              1.3650  Tot=              8.2997
 Quadrupole moment (field-independent basis, Debye-Ang):
   XX=            -78.6477   YY=            -45.1318   ZZ=            -43.7230
   XY=              3.6345   XZ=              6.5194   YZ=              0.8199

  Exact polarizability:      85.213       2.463      72.775       0.345       0.109      68.588
 Approx polarizability:      86.089       2.991      75.971       0.236       0.751      73.771

                      1                      2                      3
                      A                      A                      A
 Frequencies --     39.8147                63.3050                70.1501
 Red. masses --      5.5661                 2.5042                 4.0176
 Frc consts  --      0.0052                 0.0059                 0.0116
 IR Inten    --      3.2271                 6.7699                 8.0523

                      4                      5                      6
                      A                      A                      A
 Frequencies --    280.5594               325.5968               431.8337
 Red. masses --      1.0766                 1.0852                 2.7541
 Frc consts  --      0.0499                 0.0678                 0.3026
 IR Inten    --    170.5490                 7.0355                20.1816

                      7                      8                      9
                      A                      A                      A
 Frequencies --    811.1774               893.3677              1054.3668
 Red. masses --      1.0847                 2.6278                 3.2650
 Frc consts  --      0.4205                 1.2357                 2.1386
 IR Inten    --      4.8959                35.9030               162.0519

                     10                     11                     12
                      A                      A                      A
 Frequencies --   1060.7245              1134.7778              1274.2437
 Red. masses --      1.3708                 1.6051                 1.3312
 Frc consts  --      0.9087                 1.2178                 1.2735
 IR Inten    --     22.3563                 4.4543                12.6460

                     13                     14                     15
                      A                      A                      A
 Frequencies --   1359.4454              1407.1741              1427.7126
 Red. masses --      1.1654                 1.2083                 1.3046
 Frc consts  --      1.2689                 1.4097                 1.5668
 IR Inten    --      5.8839                28.0173                32.2444

                     16                     17                     18
                      A                      A                      A
 Frequencies --   1485.2204              1507.0598              1514.2737
 Red. masses --      1.0430                 1.0454                 1.0882
 Frc consts  --      1.3556                 1.3989                 1.4702
 IR Inten    --      3.8291                 7.8441                 1.9354

                     19                     20                     21
                      A                      A                      A
 Frequencies --   3008.6600              3014.7794              3074.4659
 Red. masses --      1.0382                 1.0681                 1.1000
 Frc consts  --      5.5371                 5.7198                 6.1263
 IR Inten    --     70.1463                61.5281                12.3933

                     22                     23                     24
                      A                      A                      A
 Frequencies --   3091.7733              3103.8430              3783.1168
 Red. masses --      1.0989                 1.1016                 1.0664
 Frc consts  --      6.1890                 6.2526                 8.9920
 IR Inten    --     22.5385                90.3081                44.6168

 - Thermochemistry -
 -------------------
 Temperature   298.150 Kelvin.  Pressure   1.00000 Atm.
 Atom     1 has atomic number  6 and mass  12.00000

 Molecular mass:   124.96020 amu.
 Principal axes and moments of inertia in atomic units:
                           1         2         3
     Eigenvalues --    79.180392776.437572828.94570
           X            0.99999   0.00267   0.00379
           Y           -0.00271   0.99996   0.00895
           Z           -0.00377  -0.00896   0.99995
 This molecule is an asymmetric top.
 Rotational symmetry number  1.
 Rotational temperatures (Kelvin)      1.09388     0.03120     0.03062
 Rotational constants (GHZ):          22.79278     0.65002     0.63796
 Zero-point vibrational energy     210647.1 (Joules/Mol)
                                   50.34586 (Kcal/Mol)
 Warning -- explicit consideration of   6 degrees of freedom as
           vibrations may cause significant error
 Vibrational temperatures:     57.28    91.08   100.93   403.66   468.46
          (Kelvin)            621.31  1167.10  1285.36  1517.00  1526.15
                             1632.69  1833.35  1955.94  2024.61  2054.16
                             2136.90  2168.32  2178.70  4328.79  4337.60
                             4423.47  4448.37  4465.74  5443.06

 Zero-point correction=                           0.080231 (Hartree/Particle)
 Thermal correction to Energy=                    0.086896
 Thermal correction to Enthalpy=                  0.087840
 Thermal correction to Gibbs Free Energy=         0.046788
 Sum of electronic and zero-point Energies=          -2726.866147
 Sum of electronic and thermal Energies=             -2726.859482
 Sum of electronic and thermal Enthalpies=           -2726.858538
 Sum of electronic and thermal Free Energies=        -2726.899591

                     E (Thermal)             CV                S
                      KCal/Mol        Cal/Mol-Kelvin    Cal/Mol-Kelvin
 Total                   54.528             19.354             86.402
 Electronic               0.000              0.000              0.000
 Translational            0.889              2.981             40.382
 Rotational               0.889              2.981             27.922
 Vibrational             52.750             13.392             18.098
 Vibration     1          0.594              1.981              5.268
 Vibration     2          0.597              1.972              4.351
 Vibration     3          0.598              1.968              4.149
 Vibration     4          0.680              1.710              1.530
 Vibration     5          0.710              1.624              1.282
 Vibration     6          0.793              1.401              0.853

                           ! Non-Optimized Parameters !
 Normal termination of Gaussian 16 at Thu Sep 16 12:29:54 2021.
