 Gaussian 09, Revision E.01,
 Gaussian 09:  ES64L-G09RevE.01 30-Nov-2015

 ---------------------------------------------------
 # opt freq b3lyp/6-31+g(d,p) scrf=(smd,solvent=THF)
 ---------------------------------------------------

 -------------------
 cl(-)...H3C-cl (ts)
 -------------------
 Symbolic Z-matrix:
 Charge = -1 Multiplicity = 1

 SCF Done:  E(RB3LYP) =  -75.9051342272     A.U. after   10 cycles
 SCF Done:  E(RB3LYP) =  -75.9051345176     A.U. after    6 cycles
 Optimization completed.
    -- Stationary point found.
 Normal termination of Gaussian 09 at Tue Oct 12 11:09:05 2021.

 ----------------------------------------------------------------------
 #N Geom=AllCheck Guess=TCheck SCRF=Check GenChk RB3LYP/6-31+G(d,p) Fre
 q
 ----------------------------------------------------------------------

 Structure from the checkpoint file:  "/scratch/global/Gau-67667.chk"
 -------------------
 cl(-)...H3C-cl (ts)
 -------------------
 Charge = -1 Multiplicity = 1

                         Standard orientation:
 ---------------------------------------------------------------------
 Center     Atomic      Atomic             Coordinates (Angstroms)
 Number     Number       Type             X           Y           Z
 ---------------------------------------------------------------------
      1          8           0       -0.000000   -0.000000    0.107607
      2          1           0        0.000000    0.000000   -0.860858
 ---------------------------------------------------------------------

 SCF Done:  E(RB3LYP) =  -75.9051345176     A.U. after    1 cycles

 The electronic state is 1-SG.
 Alpha  occ. eigenvalues --  -18.98772  -0.78358  -0.28155  -0.14539  -0.14539
 Alpha virt. eigenvalues --    0.11801   0.19136   0.20684   0.20684   0.31148
 Alpha virt. eigenvalues --    1.06983   1.25708   1.25708   1.27320   1.32976
 Alpha virt. eigenvalues --    1.72867   1.72867   1.97198   1.97198   2.54624

 Mulliken charges:
               1
     1  O   -1.261671
     2  H    0.261671
 Sum of Mulliken charges =  -1.00000

 Dipole moment (field-independent basis, Debye):
    X=             -0.0000    Y=             -0.0000    Z=             -2.0539  Tot=              2.0539
 Quadrupole moment (field-independent basis, Debye-Ang):
   XX=            -10.4356   YY=            -10.4356   ZZ=             -7.8519
   XY=              0.0000   XZ=             -0.0000   YZ=             -0.0000

  Exact polarizability:  14.332  -0.000  14.332   0.000  -0.000  11.172
 Approx polarizability:  12.286  -0.000  12.286  -0.000  -0.000  11.905

                      1
                     SG
 Frequencies --   3782.5040
 Red. masses --      1.0671
 Frc consts  --      8.9952
 IR Inten    --     37.3381

 - Thermochemistry -
 -------------------
 Temperature   298.150 Kelvin.  Pressure   1.00000 Atm.
 Atom     1 has atomic number  8 and mass  15.99491

 Molecular mass:    17.00274 amu.
 Principal axes and moments of inertia in atomic units:
                           1         2         3
     Eigenvalues --    -0.00000   3.17551   3.17551
           X           -0.00000   0.14350   0.98965
           Y           -0.00000   0.98965  -0.14350
           Z            1.00000   0.00000   0.00000
 This molecule is a prolate symmetric top.
 Rotational symmetry number  1.
 Rotational temperature (Kelvin)     27.27556
 Rotational constant (GHZ):         568.331090
 Zero-point vibrational energy      22624.4 (Joules/Mol)
                                    5.40736 (Kcal/Mol)
 Vibrational temperatures:   5442.17
          (Kelvin)

 Zero-point correction=                           0.008617 (Hartree/Particle)
 Thermal correction to Energy=                    0.010978
 Thermal correction to Enthalpy=                  0.011922
 Thermal correction to Gibbs Free Energy=        -0.007642
 Sum of electronic and zero-point Energies=            -75.896517
 Sum of electronic and thermal Energies=               -75.894157
 Sum of electronic and thermal Enthalpies=             -75.893213
 Sum of electronic and thermal Free Energies=          -75.912777

                     E (Thermal)             CV                S
                      KCal/Mol        Cal/Mol-Kelvin    Cal/Mol-Kelvin
 Total                    6.889              4.968             41.176
 Electronic               0.000              0.000              0.000
 Translational            0.889              2.981             34.437
 Rotational               0.592              1.987              6.740
 Vibrational              5.407              0.000              0.000

 Optimization completed.
    -- Stationary point found.
 Normal termination of Gaussian 09 at Tue Oct 12 11:09:24 2021.
